 Gaussian 16, Revision C.01,

 ----------------------------------------------------------------------
 #P PBE1PBE/6-31+G(d,p) Opt=(TS,NoEigen,calcfc) Freq SCRF(PCM,Solvent=A
 cetonitrile)
 ----------------------------------------------------------------------

 -----
 Title
 -----
 Symbolic Z-matrix:
 Charge =  0 Multiplicity = 1

 SCF Done:  E(RPBE1PBE) =  -991.391147189     A.U. after   15 cycles
 SCF Done:  E(RPBE1PBE) =  -991.397078027     A.U. after   13 cycles
 SCF Done:  E(RPBE1PBE) =  -991.397204188     A.U. after   11 cycles
 SCF Done:  E(RPBE1PBE) =  -991.397207880     A.U. after    9 cycles
 SCF Done:  E(RPBE1PBE) =  -991.397208501     A.U. after    9 cycles
 SCF Done:  E(RPBE1PBE) =  -991.397208551     A.U. after    8 cycles
 Optimization completed.
    -- Stationary point found.
 Normal termination of Gaussian 16 at Tue Feb 11 11:57:44 2025.

 ----------------------------------------------------------------------
 #P Geom=AllCheck Guess=TCheck SCRF=Check GenChk RPBE1PBE/6-31+G(d,p) F
 req
 ----------------------------------------------------------------------

 Structure from the checkpoint file:  "Rigid_ESIPT_TS_COOH_0.chk"
 -----
 Title
 -----
 Charge =  0 Multiplicity = 1

 SCF Done:  E(RPBE1PBE) =  -991.397208551     A.U. after    1 cycles

  Exact polarizability:     597.378     -29.235     403.412      -0.008      -0.004     167.803
 Approx polarizability:     577.874     -30.451     466.893      -0.012      -0.004     188.991

 ******    1 imaginary frequencies (negative Signs) ******

                      1                      2                      3
                      A                      A                      A
 Frequencies --  -1015.8557                36.5653                67.3013
 Red. masses --      1.1075                 6.2196                 7.2749
 Frc consts  --      0.6734                 0.0049                 0.0194
 IR Inten    --   2352.4504                 2.3478                 1.5926

                      4                      5                      6
                      A                      A                      A
 Frequencies --     81.4741                94.4062               119.8505
 Red. masses --      5.0894                 2.1940                 3.8600
 Frc consts  --      0.0199                 0.0115                 0.0327
 IR Inten    --      0.0012                 1.0163                 0.1826

                      7                      8                      9
                      A                      A                      A
 Frequencies --    132.1610               162.3969               213.7419
 Red. masses --      6.8710                 3.9993                 3.1173
 Frc consts  --      0.0707                 0.0621                 0.0839
 IR Inten    --      0.1600                 0.2349                12.5927

                     10                     11                     12
                      A                      A                      A
 Frequencies --    225.3723               238.7120               275.3784
 Red. masses --      6.2995                 3.6519                 4.4718
 Frc consts  --      0.1885                 0.1226                 0.1998
 IR Inten    --      0.2409                 0.2616                 0.5889

                     13                     14                     15
                      A                      A                      A
 Frequencies --    276.5633               315.3947               329.7010
 Red. masses --      7.8009                 3.4151                 4.8000
 Frc consts  --      0.3515                 0.2002                 0.3074
 IR Inten    --     11.0376                 6.1225                 6.0575

                     16                     17                     18
                      A                      A                      A
 Frequencies --    379.8605               392.4648               448.6664
 Red. masses --      6.2757                 6.1638                 5.6759
 Frc consts  --      0.5335                 0.5594                 0.6732
 IR Inten    --      0.6075                 0.2919                 9.7888

                     19                     20                     21
                      A                      A                      A
 Frequencies --    473.2225               475.2625               479.1171
 Red. masses --      5.0923                 3.3968                 2.9291
 Frc consts  --      0.6719                 0.4520                 0.3962
 IR Inten    --      2.3267                 9.2932                14.1297

                     22                     23                     24
                      A                      A                      A
 Frequencies --    541.1790               550.6866               567.5350
 Red. masses --      7.1482                 1.3696                 4.6506
 Frc consts  --      1.2335                 0.2447                 0.8826
 IR Inten    --      2.9929               111.8303                49.5180

                     25                     26                     27
                      A                      A                      A
 Frequencies --    567.9449               577.8482               578.0720
 Red. masses --      2.6685                 5.6894                 3.0229
 Frc consts  --      0.5071                 1.1193                 0.5952
 IR Inten    --     10.2364                14.1202                18.1276

                     28                     29                     30
                      A                      A                      A
 Frequencies --    593.5103               606.5923               621.9872
 Red. masses --      3.4919                 6.1074                 5.4798
 Frc consts  --      0.7247                 1.3240                 1.2490
 IR Inten    --      0.0097                75.3839                70.4134

                     31                     32                     33
                      A                      A                      A
 Frequencies --    646.0474               692.8330               710.6827
 Red. masses --      4.4936                 3.0928                 6.3613
 Frc consts  --      1.1050                 0.8747                 1.8930
 IR Inten    --     77.9977                64.4309                47.7593

                     34                     35                     36
                      A                      A                      A
 Frequencies --    729.9279               744.7346               748.3984
 Red. masses --      1.5598                 5.9662                 2.9030
 Frc consts  --      0.4897                 1.9496                 0.9580
 IR Inten    --     56.7465                 8.6104                 2.7635

                     37                     38                     39
                      A                      A                      A
 Frequencies --    772.9807               773.3206               787.4328
 Red. masses --      5.1883                 2.0947                 1.5850
 Frc consts  --      1.8265                 0.7381                 0.5790
 IR Inten    --     18.1730               174.7779                68.2396

                     40                     41                     42
                      A                      A                      A
 Frequencies --    790.5774               801.4328               828.8667
 Red. masses --      1.9689                 5.2960                 3.6337
 Frc consts  --      0.7250                 2.0041                 1.4708
 IR Inten    --      5.9716                 7.7359                 2.2415

                     43                     44                     45
                      A                      A                      A
 Frequencies --    836.2068               854.7716               909.0582
 Red. masses --      2.1373                 5.4207                 1.3830
 Frc consts  --      0.8805                 2.3335                 0.6734
 IR Inten    --     23.7005                12.6746                 0.3411

                     46                     47                     48
                      A                      A                      A
 Frequencies --    928.1610               938.8945               978.6950
 Red. masses --      5.0047                 2.2980                 1.3613
 Frc consts  --      2.5402                 1.1935                 0.7682
 IR Inten    --      2.7102                 2.1313                 0.2065

                     49                     50                     51
                      A                      A                      A
 Frequencies --    980.2118               996.7975              1003.1039
 Red. masses --      2.8039                 1.3470                 4.6168
 Frc consts  --      1.5873                 0.7885                 2.7370
 IR Inten    --      6.2436                 0.2462                 8.0199

                     52                     53                     54
                      A                      A                      A
 Frequencies --   1016.0883              1056.7811              1074.8381
 Red. masses --      1.9743                 4.1224                 1.9140
 Frc consts  --      1.2009                 2.7125                 1.3028
 IR Inten    --      1.5412                38.2544                 4.2429

                     55                     56                     57
                      A                      A                      A
 Frequencies --   1080.5463              1121.7404              1152.5007
 Red. masses --      4.2243                 3.4283                 1.9009
 Frc consts  --      2.9060                 2.5416                 1.4876
 IR Inten    --     58.7641              1010.3232               275.5038

                     58                     59                     60
                      A                      A                      A
 Frequencies --   1154.6698              1171.9397              1183.4574
 Red. masses --      1.1314                 1.1731                 1.8810
 Frc consts  --      0.8887                 0.9493                 1.5522
 IR Inten    --      1.4188                 0.5438               163.0111

                     61                     62                     63
                      A                      A                      A
 Frequencies --   1185.5619              1190.4654              1212.7333
 Red. masses --      1.0549                 1.3988                 1.5171
 Frc consts  --      0.8736                 1.1680                 1.3146
 IR Inten    --     85.5625                79.0162                91.6919

                     64                     65                     66
                      A                      A                      A
 Frequencies --   1218.5251              1221.8529              1236.2476
 Red. masses --      3.0131                 1.6524                 1.0997
 Frc consts  --      2.6359                 1.4535                 0.9902
 IR Inten    --    146.6748                22.8581                 0.1120

                     67                     68                     69
                      A                      A                      A
 Frequencies --   1247.5310              1290.4944              1312.5091
 Red. masses --      1.5356                 1.8722                 1.6395
 Frc consts  --      1.4081                 1.8370                 1.6640
 IR Inten    --     50.7070                32.7215                47.9366

                     70                     71                     72
                      A                      A                      A
 Frequencies --   1325.7515              1338.7719              1342.1518
 Red. masses --      1.9925                 2.6842                 3.5886
 Frc consts  --      2.0634                 2.8345                 3.8087
 IR Inten    --    142.9578               473.3371                50.7645

                     73                     74                     75
                      A                      A                      A
 Frequencies --   1372.4684              1392.1156              1421.3040
 Red. masses --      3.3299                 5.2540                 2.3987
 Frc consts  --      3.6956                 5.9991                 2.8549
 IR Inten    --    465.9622               411.5386                 3.1138

                     76                     77                     78
                      A                      A                      A
 Frequencies --   1428.4132              1438.1511              1446.9124
 Red. masses --      1.6169                 3.3068                 1.2901
 Frc consts  --      1.9438                 4.0296                 1.5914
 IR Inten    --     29.6929                41.1721                10.9441

                     79                     80                     81
                      A                      A                      A
 Frequencies --   1459.8863              1471.6553              1497.8599
 Red. masses --      3.6224                 1.1075                 4.1876
 Frc consts  --      4.5487                 1.4132                 5.5354
 IR Inten    --     10.1799                 8.1536               526.8707

                     82                     83                     84
                      A                      A                      A
 Frequencies --   1516.3833              1528.5066              1544.1445
 Red. masses --      3.6512                 4.8363                 6.0396
 Frc consts  --      4.9466                 6.6573                 8.4847
 IR Inten    --    133.5477                39.3242                 0.7111

                     85                     86                     87
                      A                      A                      A
 Frequencies --   1586.9124              1617.2128              1657.8378
 Red. masses --      6.7871                 7.7766                 7.9228
 Frc consts  --     10.0703                11.9832                12.8296
 IR Inten    --     58.8510              1172.4036               460.1821

                     88                     89                     90
                      A                      A                      A
 Frequencies --   1669.6039              1675.3177              1692.5990
 Red. masses --      8.3414                 7.4277                10.8355
 Frc consts  --     13.6998                12.2829                18.2898
 IR Inten    --    205.3457                 9.3937               541.6720

                     91                     92                     93
                      A                      A                      A
 Frequencies --   1737.8146              2003.1331              3074.9067
 Red. masses --      9.0136                 1.0970                 1.0618
 Frc consts  --     16.0382                 2.5935                 5.9152
 IR Inten    --   1104.0915               356.8272                12.6850

                     94                     95                     96
                      A                      A                      A
 Frequencies --   3083.0470              3091.0184              3115.5181
 Red. masses --      1.0612                 1.0625                 1.1019
 Frc consts  --      5.9430                 5.9813                 6.3017
 IR Inten    --     25.9571                24.1767                 2.4471

                     97                     98                     99
                      A                      A                      A
 Frequencies --   3122.4740              3136.5630              3214.4423
 Red. masses --      1.1047                 1.1035                 1.0876
 Frc consts  --      6.3456                 6.3961                 6.6211
 IR Inten    --      0.5302                14.5043                 4.7349

                    100                    101                    102
                      A                      A                      A
 Frequencies --   3224.3418              3226.7726              3237.1469
 Red. masses --      1.0879                 1.0927                 1.0966
 Frc consts  --      6.6640                 6.7031                 6.7704
 IR Inten    --      0.8966                18.8911                20.5155

                    103                    104                    105
                      A                      A                      A
 Frequencies --   3238.6090              3594.1190              3815.9676
 Red. masses --      1.0951                 1.0748                 1.0649
 Frc consts  --      6.7674                 8.1802                 9.1361
 IR Inten    --     16.4150               124.6816               197.3287

 - Thermochemistry -
 -------------------
 Temperature   298.150 Kelvin.  Pressure   1.00000 Atm.
 Atom     1 has atomic number  7 and mass  14.00307

 Molecular mass:   302.10553 amu.
 Principal axes and moments of inertia in atomic units:
                           1         2         3
     Eigenvalues --  2739.25223********************
           X            1.00000  -0.00010  -0.00000
           Y            0.00010   1.00000  -0.00001
           Z            0.00000   0.00001   1.00000
 This molecule is an asymmetric top.
 Rotational symmetry number  1.
 Warning -- assumption of classical behavior for rotation
           may cause significant error
 Rotational temperatures (Kelvin)      0.03162     0.00724     0.00591
 Rotational constants (GHZ):           0.65884     0.15091     0.12307
    1 imaginary frequencies ignored.
 Zero-point vibrational energy     755707.4 (Joules/Mol)
                                  180.61841 (Kcal/Mol)
 Warning -- explicit consideration of  28 degrees of freedom as
           vibrations may cause significant error
 Vibrational temperatures:     52.61    96.83   117.22   135.83   172.44
          (Kelvin)            190.15   233.65   307.53   324.26   343.45
                              396.21   397.91   453.78   474.37   546.53
                              564.67   645.53   680.86   683.80   689.34
                              778.64   792.32   816.56   817.15   831.39
                              831.72   853.93   872.75   894.90   929.52
                              996.83  1022.51  1050.20  1071.51  1076.78
                             1112.15  1112.64  1132.94  1137.46  1153.08
                             1192.55  1203.12  1229.83  1307.93  1335.42
                             1350.86  1408.12  1410.31  1434.17  1443.24
                             1461.92  1520.47  1546.45  1554.67  1613.93
                             1658.19  1661.31  1686.16  1702.73  1705.76
                             1712.81  1744.85  1753.19  1757.97  1778.68
                             1794.92  1856.73  1888.41  1907.46  1926.19
                             1931.06  1974.68  2002.94  2044.94  2055.17
                             2069.18  2081.78  2100.45  2117.38  2155.09
                             2181.74  2199.18  2221.68  2283.21  2326.81
                             2385.26  2402.19  2410.41  2435.27  2500.33
                             2882.06  4424.10  4435.82  4447.29  4482.54
                             4492.54  4512.81  4624.87  4639.11  4642.61
                             4657.53  4659.64  5171.14  5490.33

 Zero-point correction=                           0.287834 (Hartree/Particle)
 Thermal correction to Energy=                    0.304325
 Thermal correction to Enthalpy=                  0.305269
 Thermal correction to Gibbs Free Energy=         0.243807
 Sum of electronic and zero-point Energies=           -991.109375
 Sum of electronic and thermal Energies=              -991.092884
 Sum of electronic and thermal Enthalpies=            -991.091940
 Sum of electronic and thermal Free Energies=         -991.153402

                     E (Thermal)             CV                S
                      KCal/Mol        Cal/Mol-Kelvin    Cal/Mol-Kelvin
 Total                  190.967             68.461            129.358
 Electronic               0.000              0.000              0.000
 Translational            0.889              2.981             43.014
 Rotational               0.889              2.981             34.529
 Vibrational            189.189             62.499             51.816
 Vibration     1          0.594              1.982              5.437
 Vibration     2          0.598              1.970              4.231
 Vibration     3          0.600              1.962              3.855
 Vibration     4          0.603              1.953              3.567
 Vibration     5          0.609              1.933              3.103
 Vibration     6          0.612              1.921              2.914
 Vibration     7          0.623              1.889              2.522
 Vibration     8          0.644              1.820              2.011
 Vibration     9          0.650              1.802              1.916
 Vibration    10          0.657              1.781              1.812
 Vibration    11          0.677              1.719              1.562
 Vibration    12          0.678              1.717              1.555
 Vibration    13          0.703              1.644              1.334
 Vibration    14          0.712              1.616              1.262
 Vibration    15          0.750              1.513              1.040
 Vibration    16          0.760              1.486              0.991
 Vibration    17          0.808              1.364              0.800
 Vibration    18          0.830              1.309              0.729
 Vibration    19          0.832              1.305              0.723
 Vibration    20          0.836              1.296              0.712
 Vibration    21          0.896              1.159              0.563
 Vibration    22          0.906              1.138              0.543
 Vibration    23          0.923              1.101              0.509
 Vibration    24          0.924              1.101              0.508
 Vibration    25          0.934              1.079              0.489
 Vibration    26          0.935              1.079              0.489
 Vibration    27          0.951              1.046              0.461
 Vibration    28          0.965              1.018              0.438

                           ! Non-Optimized Parameters !
 Normal termination of Gaussian 16 at Tue Feb 11 12:06:35 2025.
 Gaussian 16:  ES64L-G16RevC.01  3-Jul-2019

 ----------------------------------------------------------------------
 #P PBE1PBE/6-31+G(d,p) Geom=AllCheck Guess=Read SCRF(PCM,Solvent=Aceto
 nitrile) TD(NStates=3, Root=1)
 ----------------------------------------------------------------------

 Structure from the checkpoint file:  "Rigid_ESIPT_TS_COOH_0.chk"
 -----
 Title
 -----
 Charge =  0 Multiplicity = 1

                         Standard orientation:
 ---------------------------------------------------------------------
 Center     Atomic      Atomic             Coordinates (Angstroms)
 Number     Number       Type             X           Y           Z
 ---------------------------------------------------------------------
      1          7           0       -1.752890   -1.797438    0.000540
      2          6           0       -2.194587   -0.544554    0.000408
      3          6           0       -3.533870   -0.003618   -0.000161
      4          6           0       -3.718488    1.394264   -0.000154
      5          1           0       -4.741836    1.757843   -0.000253
      6          6           0       -2.682537    2.332256    0.000004
      7          1           0       -2.903009    3.394686   -0.000106
      8          6           0       -1.375847    1.839526    0.000342
      9          6           0       -0.024307    2.533398    0.000314
     10          6           0       -1.184187    0.463311    0.000651
     11          6           0        2.822227   -0.097226    0.000021
     12          6           0        2.679492   -2.502038    0.000150
     13          6           0        2.025040   -1.258484    0.000291
     14          7           0        0.662561   -1.075732    0.000672
     15          1           0        5.941812   -1.439038   -0.000717
     16          6           0        0.199835    0.174052    0.000668
     17          6           0        4.224168   -0.129922   -0.000278
     18          6           0        0.957174    1.380348    0.000384
     19          6           0        4.068794   -2.529397   -0.000261
     20          6           0        2.317318    1.236168   -0.000036
     21          1           0       -0.290001   -1.760292    0.000582
     22          1           0       -2.502711   -2.481537    0.000132
     23          6           0        4.858588   -1.358325   -0.000462
     24          6           0        3.481691    2.189758   -0.000904
     25          6           0        4.749172    1.286612   -0.000062
     26          1           0        5.376377    1.474672   -0.877813
     27          1           0        5.374905    1.474585    0.878776
     28          1           0        3.445579    2.843288   -0.879230
     29          1           0        3.445662    2.845389    0.875837
     30          1           0        0.099155    3.177590   -0.879006
     31          1           0        0.099127    3.177582    0.879652
     32          1           0        2.105663   -3.423592    0.000330
     33          1           0        4.568153   -3.494390   -0.000407
     34          6           0       -4.672619   -0.906951   -0.000401
     35          8           0       -4.599836   -2.134008   -0.000618
     36          8           0       -5.877873   -0.295255   -0.000459
     37          1           0       -6.547249   -0.995548   -0.000744
 ---------------------------------------------------------------------

 SCF Done:  E(RPBE1PBE) =  -991.397208551     A.U. after    1 cycles

 Excitation energies and oscillator strengths:

 Excited State   1:      Singlet-A      2.8466 eV  435.56 nm  f=0.4852  <S**2>=0.000
      79 -> 80         0.70060
 This state for optimization and/or second-order correction.
 Total Energy, E(TD-HF/TD-DFT) =  -991.292599602
 Copying the excited state density for this state as the 1-particle RhoCI density.

 Excited State   2:      Singlet-A      3.6310 eV  341.46 nm  f=0.0100  <S**2>=0.000
      79 -> 81         0.69646

 Excited State   3:      Singlet-A      4.0066 eV  309.45 nm  f=0.0412  <S**2>=0.000
      78 -> 80         0.62421
      79 -> 82         0.30116

 The electronic state is 1-A.
 Alpha  occ. eigenvalues --  -19.27892 -19.22272 -14.45234 -14.37310 -10.37244
 Alpha  occ. eigenvalues --  -10.30317 -10.30298 -10.29032 -10.28207 -10.27009
 Alpha  occ. eigenvalues --  -10.27003 -10.26533 -10.26235 -10.26041 -10.26009
 Alpha  occ. eigenvalues --  -10.25906 -10.25519 -10.25463 -10.25186 -10.25123
 Alpha  occ. eigenvalues --  -10.25005 -10.24074 -10.23966  -1.14166  -1.04480
 Alpha  occ. eigenvalues --   -1.02410  -0.93947  -0.91712  -0.90309  -0.86579
 Alpha  occ. eigenvalues --   -0.84159  -0.81127  -0.78471  -0.76256  -0.75544
 Alpha  occ. eigenvalues --   -0.74714  -0.69506  -0.67616  -0.65859  -0.64698
 Alpha  occ. eigenvalues --   -0.62840  -0.60833  -0.60662  -0.56179  -0.55093
 Alpha  occ. eigenvalues --   -0.54119  -0.51468  -0.50741  -0.50202  -0.49808
 Alpha  occ. eigenvalues --   -0.48883  -0.47780  -0.47401  -0.46927  -0.46696
 Alpha  occ. eigenvalues --   -0.45963  -0.44838  -0.44220  -0.43585  -0.42742
 Alpha  occ. eigenvalues --   -0.41532  -0.40104  -0.39739  -0.38920  -0.38549
 Alpha  occ. eigenvalues --   -0.38295  -0.37399  -0.36981  -0.36449  -0.36353
 Alpha  occ. eigenvalues --   -0.34114  -0.32511  -0.32075  -0.31104  -0.29782
 Alpha  occ. eigenvalues --   -0.27742  -0.25855  -0.24922  -0.20570
 Alpha virt. eigenvalues --   -0.07434  -0.04485  -0.02525  -0.00358   0.01000
 Alpha virt. eigenvalues --    0.01740   0.01875   0.02415   0.03020   0.03447
 Alpha virt. eigenvalues --    0.03771   0.04024   0.04599   0.04939   0.05017

 Mulliken charges:
               1
     1  N   -0.797476
     2  C    0.445481
     3  C   -0.697292
     4  C   -0.931448
     5  H    0.186767
     6  C   -0.516778
     7  H    0.180936
     8  C    0.082982
     9  C   -0.966243
    10  C    0.475048
    11  C    0.149980
    12  C   -0.540894
    13  C   -0.111886
    14  N   -0.126006
    15  H    0.186865
    16  C    0.215428
    17  C   -0.103469
    18  C    0.152193
    19  C    0.031069
    20  C    0.992501
    21  H    0.442934
    22  H    0.340458
    23  C   -0.594273
    24  C   -0.438228
    25  C   -0.350634
    26  H    0.206410
    27  H    0.206465
    28  H    0.213750
    29  H    0.213679
    30  H    0.225041
    31  H    0.225061
    32  H    0.187286
    33  H    0.186717
    34  C    1.282702
    35  O   -0.570066
    36  O   -0.497762
    37  H    0.412704
 Sum of Mulliken charges =  -0.00000

 Dipole moment (field-independent basis, Debye):
    X=              8.8672    Y=              5.7560    Z=             -0.0015  Tot=             10.5716
 Quadrupole moment (field-independent basis, Debye-Ang):
   XX=           -111.7166   YY=           -120.1204   ZZ=           -136.5971
   XY=             -4.9683   XZ=             -0.0015   YZ=             -0.0004

 Normal termination of Gaussian 16 at Tue Feb 11 12:09:40 2025.
