 Gaussian 16, Revision C.01,

 --------------------------------------------------------------
 #P PBE1PBE/6-31+G(d,p) Opt Freq SCRF(PCM,Solvent=Acetonitrile)
 --------------------------------------------------------------

 -----
 Title
 -----
 Symbolic Z-matrix:
 Charge =  0 Multiplicity = 1

 SCF Done:  E(RPBE1PBE) =  -991.393176772     A.U. after   15 cycles
 SCF Done:  E(RPBE1PBE) =  -991.398677404     A.U. after   13 cycles
 SCF Done:  E(RPBE1PBE) =  -991.399979291     A.U. after   13 cycles
 SCF Done:  E(RPBE1PBE) =  -991.400088174     A.U. after   12 cycles
 SCF Done:  E(RPBE1PBE) =  -991.400114167     A.U. after   11 cycles
 SCF Done:  E(RPBE1PBE) =  -991.400118066     A.U. after   10 cycles
 SCF Done:  E(RPBE1PBE) =  -991.400120475     A.U. after    9 cycles
 SCF Done:  E(RPBE1PBE) =  -991.400121355     A.U. after    9 cycles
 SCF Done:  E(RPBE1PBE) =  -991.400121602     A.U. after   10 cycles
 Optimization completed.
    -- Stationary point found.
 Normal termination of Gaussian 16 at Tue Feb 11 11:49:47 2025.

 ----------------------------------------------------------------------
 #P Geom=AllCheck Guess=TCheck SCRF=Check GenChk RPBE1PBE/6-31+G(d,p) F
 req
 ----------------------------------------------------------------------

 Structure from the checkpoint file:  "Rigid_ESIPT_Keto_COOH_0.chk"
 -----
 Title
 -----
 Charge =  0 Multiplicity = 1

 SCF Done:  E(RPBE1PBE) =  -991.400121602     A.U. after    1 cycles

  Exact polarizability:     648.850     -24.166     404.301      -0.001      -0.001     168.235
 Approx polarizability:     618.239     -24.784     466.077       0.002      -0.005     189.203

                      1                      2                      3
                      A                      A                      A
 Frequencies --     35.8643                62.9704                79.5348
 Red. masses --      6.2457                 7.4925                 4.9846
 Frc consts  --      0.0047                 0.0175                 0.0186
 IR Inten    --      2.0793                 2.2659                 0.0053

                      4                      5                      6
                      A                      A                      A
 Frequencies --     92.2405                97.1358               112.8645
 Red. masses --      2.6087                 6.7514                 3.1445
 Frc consts  --      0.0131                 0.0375                 0.0236
 IR Inten    --      1.5507                 9.3279                 0.2183

                      7                      8                      9
                      A                      A                      A
 Frequencies --    152.6424               213.4580               226.2039
 Red. masses --      3.7673                 3.1501                 6.6318
 Frc consts  --      0.0517                 0.0846                 0.1999
 IR Inten    --      0.1623                11.9032                 1.3620

                     10                     11                     12
                      A                      A                      A
 Frequencies --    236.4262               252.5187               272.1953
 Red. masses --      4.0135                 6.7450                 4.1944
 Frc consts  --      0.1322                 0.2534                 0.1831
 IR Inten    --      0.0453                17.2126                 0.6683

                     13                     14                     15
                      A                      A                      A
 Frequencies --    305.9170               326.8188               346.7656
 Red. masses --      3.2792                 4.6648                 6.2471
 Frc consts  --      0.1808                 0.2936                 0.4426
 IR Inten    --     11.2295                 4.8098                 7.1352

                     16                     17                     18
                      A                      A                      A
 Frequencies --    389.8561               427.6701               461.9190
 Red. masses --      5.9427                 6.6053                 4.3184
 Frc consts  --      0.5322                 0.7118                 0.5429
 IR Inten    --      2.2049                15.7460                 8.6804

                     19                     20                     21
                      A                      A                      A
 Frequencies --    468.0146               478.1051               488.6309
 Red. masses --      3.2707                 2.8671                 6.3837
 Frc consts  --      0.4221                 0.3861                 0.8980
 IR Inten    --      9.8825                22.2551                 6.6512

                     22                     23                     24
                      A                      A                      A
 Frequencies --    534.9385               543.0125               564.0659
 Red. masses --      7.2312                 1.3252                 2.6833
 Frc consts  --      1.2192                 0.2302                 0.5030
 IR Inten    --      3.0068               117.1838                 1.6842

                     25                     26                     27
                      A                      A                      A
 Frequencies --    574.3625               579.5585               591.6184
 Red. masses --      3.3802                 5.7995                 3.4991
 Frc consts  --      0.6570                 1.1477                 0.7216
 IR Inten    --      8.8874                15.6334                 0.1581

                     28                     29                     30
                      A                      A                      A
 Frequencies --    604.1146               616.2549               641.4753
 Red. masses --      6.1640                 4.9245                 4.4215
 Frc consts  --      1.3254                 1.1019                 1.0720
 IR Inten    --     82.9797                66.3650               120.8565

                     31                     32                     33
                      A                      A                      A
 Frequencies --    664.8230               693.8154               708.9452
 Red. masses --      4.9544                 5.1725                 6.1251
 Frc consts  --      1.2902                 1.4670                 1.8138
 IR Inten    --     29.8146                19.1508                76.7201

                     34                     35                     36
                      A                      A                      A
 Frequencies --    743.3543               761.9781               769.3757
 Red. masses --      2.7817                 3.1899                 5.5450
 Frc consts  --      0.9056                 1.0912                 1.9339
 IR Inten    --      0.0745                25.7518                43.4852

                     37                     38                     39
                      A                      A                      A
 Frequencies --    778.4635               783.3046               788.2528
 Red. masses --      5.2906                 1.6379                 1.4948
 Frc consts  --      1.8890                 0.5921                 0.5472
 IR Inten    --      1.4746               103.6369                11.1894

                     40                     41                     42
                      A                      A                      A
 Frequencies --    818.9894               830.3192               833.3807
 Red. masses --      1.8957                 4.7421                 2.1261
 Frc consts  --      0.7492                 1.9263                 0.8700
 IR Inten    --     75.1888                 0.6169                63.6640

                     43                     44                     45
                      A                      A                      A
 Frequencies --    839.1463               900.4801               908.4773
 Red. masses --      1.7096                 1.1328                 1.3768
 Frc consts  --      0.7093                 0.5412                 0.6695
 IR Inten    --     88.3504                74.4184                 0.0603

                     46                     47                     48
                      A                      A                      A
 Frequencies --    914.9950               939.5186               978.6911
 Red. masses --      4.9785                 2.2869                 2.8505
 Frc consts  --      2.4558                 1.1893                 1.6087
 IR Inten    --      2.4915                 5.8427                 4.3244

                     49                     50                     51
                      A                      A                      A
 Frequencies --    981.9919               993.2473               996.5475
 Red. masses --      1.3788                 4.2607                 1.3505
 Frc consts  --      0.7834                 2.4766                 0.7902
 IR Inten    --      0.4633                 6.7622                 0.4455

                     52                     53                     54
                      A                      A                      A
 Frequencies --   1015.8945              1043.6487              1058.7346
 Red. masses --      1.9693                 4.1244                 4.0298
 Frc consts  --      1.1974                 2.6468                 2.6614
 IR Inten    --      1.6452                 9.3305                78.2792

                     55                     56                     57
                      A                      A                      A
 Frequencies --   1077.0613              1109.7613              1123.9572
 Red. masses --      1.9546                 3.4889                 2.1152
 Frc consts  --      1.3359                 2.5317                 1.5743
 IR Inten    --     10.8278               860.1152               743.7871

                     58                     59                     60
                      A                      A                      A
 Frequencies --   1155.0645              1171.7058              1179.2232
 Red. masses --      1.1330                 1.1741                 1.7453
 Frc consts  --      0.8907                 0.9497                 1.4299
 IR Inten    --      0.5567                 0.0616                61.3827

                     61                     62                     63
                      A                      A                      A
 Frequencies --   1191.1867              1203.8912              1217.1248
 Red. masses --      1.2166                 1.6476                 2.1367
 Frc consts  --      1.0171                 1.4069                 1.8649
 IR Inten    --      2.2755               337.2927                85.0833

                     64                     65                     66
                      A                      A                      A
 Frequencies --   1223.2451              1235.3159              1247.5222
 Red. masses --      2.0706                 1.0992                 1.5529
 Frc consts  --      1.8255                 0.9883                 1.4239
 IR Inten    --     70.0888                 0.0842                94.7725

                     67                     68                     69
                      A                      A                      A
 Frequencies --   1274.7085              1293.4122              1315.7469
 Red. masses --      1.7838                 2.1009                 1.6796
 Frc consts  --      1.7077                 2.0707                 1.7132
 IR Inten    --    102.1845                48.6630                58.1443

                     70                     71                     72
                      A                      A                      A
 Frequencies --   1327.3343              1339.3396              1351.5013
 Red. masses --      2.5080                 1.9137                 3.2818
 Frc consts  --      2.6033                 2.0226                 3.5318
 IR Inten    --    491.1348               950.1187               181.3889

                     73                     74                     75
                      A                      A                      A
 Frequencies --   1377.3487              1408.2497              1423.5677
 Red. masses --      4.6985                 4.2310                 1.1450
 Frc consts  --      5.2517                 4.9437                 1.3672
 IR Inten    --     64.5184               186.1988                40.8742

                     76                     77                     78
                      A                      A                      A
 Frequencies --   1435.5287              1440.7056              1449.4817
 Red. masses --      4.5515                 2.7228                 1.2791
 Frc consts  --      5.5262                 3.3298                 1.5833
 IR Inten    --      0.4852               153.5650                59.8826

                     79                     80                     81
                      A                      A                      A
 Frequencies --   1465.0461              1471.2944              1491.7137
 Red. masses --      3.1276                 1.1224                 3.4436
 Frc consts  --      3.9551                 1.4315                 4.5148
 IR Inten    --     74.5504                10.8749               743.4949

                     82                     83                     84
                      A                      A                      A
 Frequencies --   1525.2960              1538.6692              1551.2616
 Red. masses --      4.3971                 5.3780                 4.7958
 Frc consts  --      6.0273                 7.5017                 6.7995
 IR Inten    --     41.6157                72.2139               131.2469

                     85                     86                     87
                      A                      A                      A
 Frequencies --   1591.0871              1612.5567              1647.6707
 Red. masses --      7.0020                 6.1539                 6.3831
 Frc consts  --     10.4438                 9.4283                10.2100
 IR Inten    --    221.2203              1211.9786               289.0323

                     88                     89                     90
                      A                      A                      A
 Frequencies --   1673.1201              1685.3617              1699.4200
 Red. masses --      7.5008                 7.5216                 9.9216
 Frc consts  --     12.3712                12.5877                16.8823
 IR Inten    --      6.3719               384.3162               745.0994

                     91                     92                     93
                      A                      A                      A
 Frequencies --   1732.3332              3074.5898              3083.9344
 Red. masses --      8.9873                 1.0619                 1.0612
 Frc consts  --     15.8907                 5.9146                 5.9466
 IR Inten    --   1112.0751                10.2930                25.0479

                     94                     95                     96
                      A                      A                      A
 Frequencies --   3091.7107              3115.0618              3123.5491
 Red. masses --      1.0625                 1.1019                 1.1046
 Frc consts  --      5.9839                 6.2996                 6.3499
 IR Inten    --     22.9717                 1.9141                 0.4090

                     97                     98                     99
                      A                      A                      A
 Frequencies --   3137.5190              3190.4173              3217.3069
 Red. masses --      1.1034                 1.0861                 1.0877
 Frc consts  --      6.3999                 6.5133                 6.6335
 IR Inten    --     13.0707               427.6220                 4.1628

                    100                    101                    102
                      A                      A                      A
 Frequencies --   3224.4396              3229.0673              3238.7962
 Red. masses --      1.0879                 1.0927                 1.0952
 Frc consts  --      6.6643                 6.7129                 6.7685
 IR Inten    --      0.3194                16.1363                22.9804

                    103                    104                    105
                      A                      A                      A
 Frequencies --   3239.1501              3552.1527              3815.9820
 Red. masses --      1.0968                 1.0729                 1.0649
 Frc consts  --      6.7801                 7.9765                 9.1367
 IR Inten    --     12.4095               127.3867               204.7297

 - Thermochemistry -
 -------------------
 Temperature   298.150 Kelvin.  Pressure   1.00000 Atm.
 Atom     1 has atomic number  7 and mass  14.00307

 Molecular mass:   302.10553 amu.
 Principal axes and moments of inertia in atomic units:
                           1         2         3
     Eigenvalues --  2689.39231********************
           X            1.00000  -0.00019   0.00000
           Y            0.00019   1.00000   0.00001
           Z           -0.00000  -0.00001   1.00000
 This molecule is an asymmetric top.
 Rotational symmetry number  1.
 Warning -- assumption of classical behavior for rotation
           may cause significant error
 Rotational temperatures (Kelvin)      0.03221     0.00705     0.00579
 Rotational constants (GHZ):           0.67106     0.14683     0.12074
 Zero-point vibrational energy     766292.0 (Joules/Mol)
                                  183.14819 (Kcal/Mol)
 Warning -- explicit consideration of  29 degrees of freedom as
           vibrations may cause significant error
 Vibrational temperatures:     51.60    90.60   114.43   132.71   139.76
          (Kelvin)            162.39   219.62   307.12   325.46   340.16
                              363.32   391.63   440.15   470.22   498.92
                              560.92   615.32   664.60   673.37   687.89
                              703.03   769.66   781.27   811.56   826.38
                              833.86   851.21   869.19   886.65   922.94
                              956.53   998.25  1020.01  1069.52  1096.32
                             1106.96  1120.04  1127.00  1134.12  1178.34
                             1194.64  1199.05  1207.34  1295.59  1307.10
                             1316.47  1351.76  1408.12  1412.87  1429.06
                             1433.81  1461.65  1501.58  1523.28  1549.65
                             1596.70  1617.12  1661.88  1685.82  1696.64
                             1713.85  1732.13  1751.17  1759.98  1777.34
                             1794.91  1834.02  1860.93  1893.07  1909.74
                             1927.01  1944.51  1981.70  2026.16  2048.20
                             2065.41  2072.85  2085.48  2107.87  2116.86
                             2146.24  2194.56  2213.80  2231.92  2289.22
                             2320.11  2370.63  2407.25  2424.86  2445.09
                             2492.44  4423.65  4437.09  4448.28  4481.88
                             4494.09  4514.19  4590.30  4628.99  4639.25
                             4645.91  4659.91  4660.41  5110.76  5490.35

 Zero-point correction=                           0.291865 (Hartree/Particle)
 Thermal correction to Energy=                    0.308751
 Thermal correction to Enthalpy=                  0.309695
 Thermal correction to Gibbs Free Energy=         0.247231
 Sum of electronic and zero-point Energies=           -991.108256
 Sum of electronic and thermal Energies=              -991.091370
 Sum of electronic and thermal Enthalpies=            -991.090426
 Sum of electronic and thermal Free Energies=         -991.152891

                     E (Thermal)             CV                S
                      KCal/Mol        Cal/Mol-Kelvin    Cal/Mol-Kelvin
 Total                  193.744             69.614            131.468
 Electronic               0.000              0.000              0.000
 Translational            0.889              2.981             43.014
 Rotational               0.889              2.981             34.557
 Vibrational            191.967             63.653             53.898
 Vibration     1          0.594              1.982              5.475
 Vibration     2          0.597              1.972              4.362
 Vibration     3          0.600              1.963              3.902
 Vibration     4          0.602              1.955              3.612
 Vibration     5          0.603              1.951              3.511
 Vibration     6          0.607              1.939              3.219
 Vibration     7          0.619              1.900              2.639
 Vibration     8          0.644              1.820              2.014
 Vibration     9          0.650              1.801              1.909
 Vibration    10          0.655              1.785              1.830
 Vibration    11          0.664              1.759              1.713
 Vibration    12          0.675              1.725              1.582
 Vibration    13          0.696              1.662              1.384
 Vibration    14          0.710              1.622              1.276
 Vibration    15          0.725              1.582              1.181
 Vibration    16          0.758              1.492              1.001
 Vibration    17          0.789              1.410              0.866
 Vibration    18          0.820              1.335              0.761
 Vibration    19          0.825              1.321              0.743
 Vibration    20          0.835              1.299              0.715
 Vibration    21          0.845              1.275              0.687
 Vibration    22          0.890              1.173              0.576
 Vibration    23          0.898              1.155              0.559
 Vibration    24          0.920              1.109              0.516
 Vibration    25          0.931              1.087              0.496
 Vibration    26          0.936              1.075              0.486
 Vibration    27          0.949              1.050              0.464
 Vibration    28          0.963              1.023              0.443
 Vibration    29          0.976              0.998              0.423

                           ! Non-Optimized Parameters !
 Normal termination of Gaussian 16 at Tue Feb 11 11:58:42 2025.
 Gaussian 16:  ES64L-G16RevC.01  3-Jul-2019

 ----------------------------------------------------------------------
 #P PBE1PBE/6-31+G(d,p) Geom=AllCheck Guess=Read SCRF(PCM,Solvent=Aceto
 nitrile) TD(NStates=3, Root=1)
 ----------------------------------------------------------------------

 Structure from the checkpoint file:  "Rigid_ESIPT_Keto_COOH_0.chk"
 -----
 Title
 -----
 Charge =  0 Multiplicity = 1

                         Standard orientation:
 ---------------------------------------------------------------------
 Center     Atomic      Atomic             Coordinates (Angstroms)
 Number     Number       Type             X           Y           Z
 ---------------------------------------------------------------------
      1          7           0       -1.893187   -1.869267   -0.000105
      2          6           0       -2.243001   -0.600306   -0.000068
      3          6           0       -3.574589   -0.001563    0.000105
      4          6           0       -3.721869    1.393898    0.000237
      5          1           0       -4.733650    1.788558    0.000463
      6          6           0       -2.656777    2.300393    0.000202
      7          1           0       -2.840521    3.369669    0.000390
      8          6           0       -1.370353    1.771124   -0.000093
      9          6           0       -0.028133    2.468484   -0.000118
     10          6           0       -1.188562    0.383757   -0.000280
     11          6           0        2.867239   -0.091770   -0.000084
     12          6           0        2.793709   -2.496669   -0.000230
     13          6           0        2.110477   -1.272633   -0.000247
     14          7           0        0.742090   -1.115113   -0.000430
     15          1           0        6.024182   -1.337676    0.000365
     16          6           0        0.197813    0.110339   -0.000345
     17          6           0        4.267398   -0.079177    0.000145
     18          6           0        0.951399    1.323473   -0.000221
     19          6           0        4.185099   -2.481391   -0.000008
     20          6           0        2.313323    1.220430   -0.000045
     21          1           0        0.033447   -1.874360   -0.000329
     22          1           0       -2.725885   -2.454613    0.000266
     23          6           0        4.939202   -1.288954    0.000187
     24          6           0        3.444064    2.213611    0.000235
     25          6           0        4.742670    1.354691    0.000335
     26          1           0        5.362243    1.564244   -0.877919
     27          1           0        5.362024    1.564087    0.878779
     28          1           0        3.385532    2.866598   -0.877259
     29          1           0        3.385258    2.866398    0.877860
     30          1           0        0.093063    3.112677   -0.879771
     31          1           0        0.093160    3.112669    0.879519
     32          1           0        2.248824   -3.435437   -0.000366
     33          1           0        4.711592   -3.431636    0.000020
     34          6           0       -4.750774   -0.854405    0.000173
     35          8           0       -4.742662   -2.084853    0.001147
     36          8           0       -5.930479   -0.189783   -0.000819
     37          1           0       -6.626456   -0.863424   -0.000163
 ---------------------------------------------------------------------

 SCF Done:  E(RPBE1PBE) =  -991.400121602     A.U. after    1 cycles

 Excitation energies and oscillator strengths:

 Excited State   1:      Singlet-A      2.5961 eV  477.58 nm  f=0.5236  <S**2>=0.000
      79 -> 80         0.70137
 This state for optimization and/or second-order correction.
 Total Energy, E(TD-HF/TD-DFT) =  -991.304716679
 Copying the excited state density for this state as the 1-particle RhoCI density.

 Excited State   2:      Singlet-A      3.4151 eV  363.05 nm  f=0.0100  <S**2>=0.000
      79 -> 81         0.69833

 Excited State   3:      Singlet-A      3.9528 eV  313.66 nm  f=0.0179  <S**2>=0.000
      78 -> 80         0.48610
      79 -> 82         0.49833

 The electronic state is 1-A.
 Alpha  occ. eigenvalues --  -19.27659 -19.22096 -14.47563 -14.35976 -10.37017
 Alpha  occ. eigenvalues --  -10.31443 -10.31026 -10.28564 -10.28410 -10.27301
 Alpha  occ. eigenvalues --  -10.27046 -10.26803 -10.26336 -10.26205 -10.26123
 Alpha  occ. eigenvalues --  -10.25964 -10.25952 -10.25630 -10.25426 -10.25278
 Alpha  occ. eigenvalues --  -10.24682 -10.24469 -10.23663  -1.13940  -1.04219
 Alpha  occ. eigenvalues --   -1.03744  -0.93496  -0.92313  -0.90161  -0.86648
 Alpha  occ. eigenvalues --   -0.84227  -0.81586  -0.78671  -0.76664  -0.75625
 Alpha  occ. eigenvalues --   -0.74738  -0.69868  -0.67564  -0.66076  -0.64890
 Alpha  occ. eigenvalues --   -0.63767  -0.61287  -0.60528  -0.56270  -0.55734
 Alpha  occ. eigenvalues --   -0.55071  -0.51584  -0.50752  -0.50098  -0.49841
 Alpha  occ. eigenvalues --   -0.49287  -0.47895  -0.47763  -0.46897  -0.46778
 Alpha  occ. eigenvalues --   -0.46039  -0.44902  -0.44837  -0.43365  -0.42978
 Alpha  occ. eigenvalues --   -0.41500  -0.40039  -0.39674  -0.38900  -0.38750
 Alpha  occ. eigenvalues --   -0.38437  -0.37366  -0.37200  -0.36852  -0.36455
 Alpha  occ. eigenvalues --   -0.33942  -0.32905  -0.31683  -0.30967  -0.30033
 Alpha  occ. eigenvalues --   -0.26851  -0.25977  -0.25431  -0.19910
 Alpha virt. eigenvalues --   -0.07950  -0.04594  -0.02531  -0.00687   0.00991
 Alpha virt. eigenvalues --    0.01730   0.02159   0.02376   0.02973   0.03472
 Alpha virt. eigenvalues --    0.03654   0.04009   0.04561   0.04883   0.04964

 Mulliken charges:
               1
     1  N   -0.781440
     2  C    0.397108
     3  C   -0.573806
     4  C   -0.924960
     5  H    0.186554
     6  C   -0.502206
     7  H    0.179806
     8  C   -0.012922
     9  C   -0.950643
    10  C    0.479396
    11  C    0.059301
    12  C   -0.638188
    13  C    0.155523
    14  N   -0.097155
    15  H    0.189000
    16  C    0.009342
    17  C   -0.030203
    18  C    0.109009
    19  C    0.041285
    20  C    0.856938
    21  H    0.380842
    22  H    0.331465
    23  C   -0.501183
    24  C   -0.003890
    25  C   -0.706188
    26  H    0.208108
    27  H    0.208107
    28  H    0.215650
    29  H    0.215652
    30  H    0.226955
    31  H    0.226947
    32  H    0.191358
    33  H    0.189409
    34  C    1.329640
    35  O   -0.575896
    36  O   -0.500633
    37  H    0.411918
 Sum of Mulliken charges =  -0.00000

 Dipole moment (field-independent basis, Debye):
    X=             10.8361    Y=              6.2018    Z=              0.0002  Tot=             12.4853
 Quadrupole moment (field-independent basis, Debye-Ang):
   XX=           -113.2268   YY=           -121.2165   ZZ=           -136.6022
   XY=             -8.4675   XZ=              0.0016   YZ=              0.0068

 Normal termination of Gaussian 16 at Tue Feb 11 12:02:12 2025.
