 Gaussian 16, Revision C.01,

 --------------------------------------------------------------
 #P PBE1PBE/6-31+G(d,p) Opt Freq SCRF(PCM,Solvent=Acetonitrile)
 --------------------------------------------------------------

 -----
 Title
 -----
 Symbolic Z-matrix:
 Charge =  0 Multiplicity = 1

 SCF Done:  E(RPBE1PBE) =  -991.421580299     A.U. after   14 cycles
 SCF Done:  E(RPBE1PBE) =  -991.426714888     A.U. after   13 cycles
 SCF Done:  E(RPBE1PBE) =  -991.427993513     A.U. after   12 cycles
 SCF Done:  E(RPBE1PBE) =  -991.428110444     A.U. after   11 cycles
 SCF Done:  E(RPBE1PBE) =  -991.428140982     A.U. after   10 cycles
 SCF Done:  E(RPBE1PBE) =  -991.428143483     A.U. after   10 cycles
 SCF Done:  E(RPBE1PBE) =  -991.428144315     A.U. after    9 cycles
 SCF Done:  E(RPBE1PBE) =  -991.428144669     A.U. after    8 cycles
 SCF Done:  E(RPBE1PBE) =  -991.428144784     A.U. after    8 cycles
 Optimization completed.
    -- Stationary point found.
 Normal termination of Gaussian 16 at Tue Feb 11 11:52:10 2025.

 ----------------------------------------------------------------------
 #P Geom=AllCheck Guess=TCheck SCRF=Check GenChk RPBE1PBE/6-31+G(d,p) F
 req
 ----------------------------------------------------------------------

 Structure from the checkpoint file:  "Rigid_ESIPT_Enol_COOH_0.chk"
 -----
 Title
 -----
 Charge =  0 Multiplicity = 1

 SCF Done:  E(RPBE1PBE) =  -991.428144784     A.U. after    1 cycles

  Exact polarizability:     533.051      29.913     395.567      -0.003       0.013     167.963
 Approx polarizability:     525.896      30.494     456.933      -0.004       0.016     189.054

                      1                      2                      3
                      A                      A                      A
 Frequencies --     37.6579                59.9462                81.9706
 Red. masses --      6.1623                 6.1796                 5.3341
 Frc consts  --      0.0051                 0.0131                 0.0211
 IR Inten    --      2.5702                 0.1667                 0.2226

                      4                      5                      6
                      A                      A                      A
 Frequencies --     90.5293               105.8495               113.4967
 Red. masses --      3.0846                 6.6290                 3.0255
 Frc consts  --      0.0149                 0.0438                 0.0230
 IR Inten    --      1.4366                 0.6260                 0.0401

                      7                      8                      9
                      A                      A                      A
 Frequencies --    150.5059               215.6886               231.4702
 Red. masses --      3.5549                 3.1052                 6.3657
 Frc consts  --      0.0474                 0.0851                 0.2010
 IR Inten    --      2.2744                 9.3366                 0.8370

                     10                     11                     12
                      A                      A                      A
 Frequencies --    232.5953               253.9826               274.9267
 Red. masses --      4.9281                 6.6074                 4.4652
 Frc consts  --      0.1571                 0.2511                 0.1989
 IR Inten    --      0.0844                 2.4058                 0.0021

                     13                     14                     15
                      A                      A                      A
 Frequencies --    305.2036               336.1243               337.8311
 Red. masses --      2.7716                 4.6763                 4.4719
 Frc consts  --      0.1521                 0.3113                 0.3007
 IR Inten    --      6.5453                17.2489                25.5737

                     16                     17                     18
                      A                      A                      A
 Frequencies --    379.8659               392.5178               415.4522
 Red. masses --      1.1369                 5.8631                 5.5956
 Frc consts  --      0.0967                 0.5322                 0.5690
 IR Inten    --    296.0413                 3.7209                12.7173

                     19                     20                     21
                      A                      A                      A
 Frequencies --    467.5413               480.4360               489.1431
 Red. masses --      4.4462                 3.8482                 2.7331
 Frc consts  --      0.5726                 0.5233                 0.3853
 IR Inten    --      2.4653                 5.3510                52.2353

                     22                     23                     24
                      A                      A                      A
 Frequencies --    489.5387               533.2114               556.6075
 Red. masses --      6.0756                 6.8662                 1.5165
 Frc consts  --      0.8579                 1.1502                 0.2768
 IR Inten    --      7.1085                 6.2682                75.1406

                     25                     26                     27
                      A                      A                      A
 Frequencies --    569.6345               579.0852               586.2648
 Red. masses --      2.4928                 5.4309                 2.7436
 Frc consts  --      0.4766                 1.0730                 0.5556
 IR Inten    --     17.5720                 7.0758                14.6943

                     28                     29                     30
                      A                      A                      A
 Frequencies --    593.1477               606.7798               618.9383
 Red. masses --      3.8116                 6.3427                 5.0610
 Frc consts  --      0.7901                 1.3759                 1.1423
 IR Inten    --      0.0008                38.8220                30.3409

                     31                     32                     33
                      A                      A                      A
 Frequencies --    636.7488               681.5297               700.8884
 Red. masses --      4.7501                 6.0466                 3.5761
 Frc consts  --      1.1347                 1.6548                 1.0350
 IR Inten    --     80.8216                 3.0500                13.5893

                     34                     35                     36
                      A                      A                      A
 Frequencies --    715.0814               719.0918               756.0675
 Red. masses --      6.6240                 1.2327                 2.4409
 Frc consts  --      1.9956                 0.3756                 0.8221
 IR Inten    --     47.9133                13.3097                 4.7635

                     37                     38                     39
                      A                      A                      A
 Frequencies --    768.3589               776.5716               778.1816
 Red. masses --      4.6554                 6.1613                 2.1534
 Frc consts  --      1.6193                 2.1892                 0.7683
 IR Inten    --     33.8497                 9.1196               101.7954

                     40                     41                     42
                      A                      A                      A
 Frequencies --    790.1659               798.3800               832.0482
 Red. masses --      1.4090                 3.0816                 2.7668
 Frc consts  --      0.5183                 1.1573                 1.1286
 IR Inten    --     71.8022                 1.7105                 0.1468

                     43                     44                     45
                      A                      A                      A
 Frequencies --    837.8294               841.9033               906.6341
 Red. masses --      5.0311                 2.3891                 4.4070
 Frc consts  --      2.0808                 0.9977                 2.1343
 IR Inten    --      0.1394                28.8110                 3.2276

                     46                     47                     48
                      A                      A                      A
 Frequencies --    910.1252               943.0056               975.5100
 Red. masses --      1.3980                 2.2743                 2.8170
 Frc consts  --      0.6823                 1.1916                 1.5794
 IR Inten    --      0.2003                 1.9691                 4.0023

                     49                     50                     51
                      A                      A                      A
 Frequencies --    980.9436               994.4668               995.8059
 Red. masses --      1.3422                 1.3294                 3.9883
 Frc consts  --      0.7609                 0.7746                 2.3302
 IR Inten    --      0.0245                 0.3501                 9.3750

                     52                     53                     54
                      A                      A                      A
 Frequencies --   1017.0702              1044.7853              1061.9194
 Red. masses --      1.9892                 4.6974                 3.3827
 Frc consts  --      1.2124                 3.0211                 2.2475
 IR Inten    --      1.5089                22.6638                32.7658

                     55                     56                     57
                      A                      A                      A
 Frequencies --   1067.8084              1122.9985              1129.9469
 Red. masses --      1.9588                 2.5882                 2.9649
 Frc consts  --      1.3159                 1.9231                 2.2303
 IR Inten    --      0.8998               510.8977                21.6957

                     58                     59                     60
                      A                      A                      A
 Frequencies --   1154.6719              1169.8371              1175.6772
 Red. masses --      1.1356                 1.1753                 1.4394
 Frc consts  --      0.8921                 0.9476                 1.1722
 IR Inten    --      0.3645                 0.0270               173.6078

                     61                     62                     63
                      A                      A                      A
 Frequencies --   1179.8005              1192.9016              1212.0962
 Red. masses --      1.2833                 1.8683                 2.1098
 Frc consts  --      1.0524                 1.5665                 1.8262
 IR Inten    --      9.2025               240.2163                70.1553

                     64                     65                     66
                      A                      A                      A
 Frequencies --   1221.0140              1235.5009              1246.3742
 Red. masses --      2.0511                 1.1004                 1.4806
 Frc consts  --      1.8017                 0.9897                 1.3552
 IR Inten    --     56.4438                 0.0846                14.6691

                     67                     68                     69
                      A                      A                      A
 Frequencies --   1286.1049              1296.7207              1320.5138
 Red. masses --      2.1762                 1.9177                 1.9511
 Frc consts  --      2.1208                 1.8998                 2.0045
 IR Inten    --     18.6022                 0.5298                22.9581

                     70                     71                     72
                      A                      A                      A
 Frequencies --   1322.4129              1348.4582              1363.6104
 Red. masses --      3.0286                 3.6070                 4.1464
 Frc consts  --      3.1206                 3.8643                 4.5426
 IR Inten    --     71.9953                45.5615               463.6456

                     73                     74                     75
                      A                      A                      A
 Frequencies --   1382.6448              1409.9304              1427.7009
 Red. masses --      4.7732                 3.3884                 1.3224
 Frc consts  --      5.3762                 3.9687                 1.5881
 IR Inten    --     14.5067               128.2709                34.2561

                     76                     77                     78
                      A                      A                      A
 Frequencies --   1429.4874              1448.4266              1451.2991
 Red. masses --      2.9538                 4.3032                 1.1640
 Frc consts  --      3.5562                 5.3191                 1.4445
 IR Inten    --     27.5971                28.8586                 5.2690

                     79                     80                     81
                      A                      A                      A
 Frequencies --   1472.5794              1483.2160              1497.5262
 Red. masses --      1.1286                 3.2421                 4.9657
 Frc consts  --      1.4419                 4.2023                 6.5611
 IR Inten    --      5.6288                 7.5868                52.9561

                     82                     83                     84
                      A                      A                      A
 Frequencies --   1512.8336              1530.8642              1560.4973
 Red. masses --      3.3974                 4.3050                 5.8728
 Frc consts  --      4.5812                 5.9442                 8.4260
 IR Inten    --     91.8580                12.4111                38.1713

                     85                     86                     87
                      A                      A                      A
 Frequencies --   1595.3105              1635.4336              1653.6927
 Red. masses --      1.7569                 5.5943                 8.3809
 Frc consts  --      2.6344                 8.8158                13.5037
 IR Inten    --    297.7450               365.0035               132.5728

                     88                     89                     90
                      A                      A                      A
 Frequencies --   1669.1414              1674.8471              1703.8727
 Red. masses --      7.2446                 7.2665                10.4395
 Frc consts  --     11.8918                12.0095                17.8568
 IR Inten    --    577.7940               108.4323               196.3151

                     91                     92                     93
                      A                      A                      A
 Frequencies --   1744.3026              3065.7628              3079.4760
 Red. masses --      8.3982                 1.0619                 1.0611
 Frc consts  --     15.0550                 5.8803                 5.9286
 IR Inten    --    901.2187                16.9233                27.4821

                     94                     95                     96
                      A                      A                      A
 Frequencies --   3088.1008              3104.0285              3118.3741
 Red. masses --      1.0624                 1.1016                 1.1047
 Frc consts  --      5.9693                 6.2537                 6.3293
 IR Inten    --     36.0717                 3.8787                 0.1876

                     97                     98                     99
                      A                      A                      A
 Frequencies --   3133.1173              3207.0273              3219.4400
 Red. masses --      1.1036                 1.0870                 1.0920
 Frc consts  --      6.3830                 6.5869                 6.6683
 IR Inten    --     20.0623                 3.8755                21.3189

                    100                    101                    102
                      A                      A                      A
 Frequencies --   3228.0665              3229.1823              3246.6332
 Red. masses --      1.0896                 1.0967                 1.0945
 Frc consts  --      6.6898                 6.7380                 6.7972
 IR Inten    --     12.1190                34.1002                 7.2006

                    103                    104                    105
                      A                      A                      A
 Frequencies --   3519.5816              3685.7073              3810.8687
 Red. masses --      1.0495                 1.1050                 1.0650
 Frc consts  --      7.6600                 8.8443                 9.1126
 IR Inten    --    183.1226               465.5914               201.7823

 - Thermochemistry -
 -------------------
 Temperature   298.150 Kelvin.  Pressure   1.00000 Atm.
 Atom     1 has atomic number  7 and mass  14.00307

 Molecular mass:   302.10553 amu.
 Principal axes and moments of inertia in atomic units:
                           1         2         3
     Eigenvalues --  2664.21289********************
           X            1.00000  -0.00085  -0.00000
           Y            0.00085   1.00000   0.00000
           Z            0.00000  -0.00000   1.00000
 This molecule is an asymmetric top.
 Rotational symmetry number  1.
 Warning -- assumption of classical behavior for rotation
           may cause significant error
 Rotational temperatures (Kelvin)      0.03251     0.00698     0.00576
 Rotational constants (GHZ):           0.67740     0.14550     0.12004
 Zero-point vibrational energy     766294.7 (Joules/Mol)
                                  183.14884 (Kcal/Mol)
 Warning -- explicit consideration of  30 degrees of freedom as
           vibrations may cause significant error
 Vibrational temperatures:     54.18    86.25   117.94   130.25   152.29
          (Kelvin)            163.30   216.54   310.33   333.03   334.65
                              365.42   395.56   439.12   483.61   486.06
                              546.54   564.75   597.74   672.69   691.24
                              703.77   704.34   767.17   800.83   819.58
                              833.17   843.50   853.41   873.02   890.51
                              916.14   980.57  1008.42  1028.84  1034.61
                             1087.81  1105.50  1117.31  1119.63  1136.87
                             1148.69  1197.13  1205.45  1211.31  1304.44
                             1309.47  1356.77  1403.54  1411.36  1430.82
                             1432.74  1463.34  1503.21  1527.87  1536.34
                             1615.74  1625.74  1661.32  1683.13  1691.54
                             1697.47  1716.32  1743.94  1756.77  1777.61
                             1793.25  1850.42  1865.69  1899.92  1902.66
                             1940.13  1961.93  1989.32  2028.58  2054.14
                             2056.71  2083.96  2088.10  2118.71  2134.02
                             2154.61  2176.63  2202.57  2245.21  2295.30
                             2353.02  2379.29  2401.52  2409.73  2451.49
                             2509.66  4410.95  4430.68  4443.09  4466.00
                             4486.64  4507.86  4614.20  4632.06  4644.47
                             4646.07  4671.18  5063.89  5302.91  5482.99

 Zero-point correction=                           0.291866 (Hartree/Particle)
 Thermal correction to Energy=                    0.308973
 Thermal correction to Enthalpy=                  0.309917
 Thermal correction to Gibbs Free Energy=         0.247181
 Sum of electronic and zero-point Energies=           -991.136279
 Sum of electronic and thermal Energies=              -991.119172
 Sum of electronic and thermal Enthalpies=            -991.118228
 Sum of electronic and thermal Free Energies=         -991.180964

                     E (Thermal)             CV                S
                      KCal/Mol        Cal/Mol-Kelvin    Cal/Mol-Kelvin
 Total                  193.883             70.515            132.039
 Electronic               0.000              0.000              0.000
 Translational            0.889              2.981             43.014
 Rotational               0.889              2.981             34.562
 Vibrational            192.106             64.553             54.463
 Vibration     1          0.594              1.982              5.379
 Vibration     2          0.597              1.973              4.459
 Vibration     3          0.600              1.961              3.843
 Vibration     4          0.602              1.956              3.649
 Vibration     5          0.605              1.945              3.344
 Vibration     6          0.607              1.938              3.208
 Vibration     7          0.618              1.902              2.666
 Vibration     8          0.645              1.817              1.995
 Vibration     9          0.653              1.793              1.868
 Vibration    10          0.653              1.791              1.859
 Vibration    11          0.665              1.756              1.703
 Vibration    12          0.677              1.720              1.565
 Vibration    13          0.696              1.664              1.388
 Vibration    14          0.717              1.603              1.230
 Vibration    15          0.718              1.600              1.222
 Vibration    16          0.750              1.513              1.040
 Vibration    17          0.760              1.486              0.991
 Vibration    18          0.779              1.437              0.908
 Vibration    19          0.825              1.322              0.744
 Vibration    20          0.837              1.293              0.709
 Vibration    21          0.845              1.274              0.686
 Vibration    22          0.845              1.273              0.685
 Vibration    23          0.888              1.177              0.580
 Vibration    24          0.912              1.125              0.531
 Vibration    25          0.926              1.097              0.505
 Vibration    26          0.936              1.077              0.487
 Vibration    27          0.943              1.061              0.474
 Vibration    28          0.951              1.046              0.462
 Vibration    29          0.965              1.017              0.438
 Vibration    30          0.979              0.992              0.418

                           ! Non-Optimized Parameters !
 Normal termination of Gaussian 16 at Tue Feb 11 12:00:55 2025.
 Gaussian 16:  ES64L-G16RevC.01  3-Jul-2019

 ----------------------------------------------------------------------
 #P PBE1PBE/6-31+G(d,p) Geom=AllCheck Guess=Read SCRF(PCM,Solvent=Aceto
 nitrile) TD(NStates=3, Root=1)
 ----------------------------------------------------------------------

 Structure from the checkpoint file:  "Rigid_ESIPT_Enol_COOH_0.chk"
 -----
 Title
 -----
 Charge =  0 Multiplicity = 1

                         Standard orientation:
 ---------------------------------------------------------------------
 Center     Atomic      Atomic             Coordinates (Angstroms)
 Number     Number       Type             X           Y           Z
 ---------------------------------------------------------------------
      1          7           0        2.048679   -1.876267   -0.001282
      2          6           0        2.277198   -0.550436   -0.000444
      3          6           0        3.576807    0.038334   -0.000034
      4          6           0        3.711857    1.441736    0.000117
      5          1           0        4.715551    1.853496    0.000418
      6          6           0        2.622311    2.298851    0.000002
      7          1           0        2.762630    3.375047    0.000143
      8          6           0        1.346992    1.729490   -0.000229
      9          6           0        0.006152    2.419220   -0.000144
     10          6           0        1.178452    0.345034   -0.000415
     11          6           0       -2.893646   -0.088464    0.000009
     12          6           0       -2.838127   -2.486369   -0.000076
     13          6           0       -2.121205   -1.266335   -0.000151
     14          7           0       -0.755116   -1.192937   -0.000364
     15          1           0       -6.061672   -1.308545    0.000479
     16          6           0       -0.243522    0.029134   -0.000362
     17          6           0       -4.298307   -0.062353    0.000237
     18          6           0       -0.965352    1.273801   -0.000184
     19          6           0       -4.223748   -2.466450    0.000145
     20          6           0       -2.331179    1.207824   -0.000004
     21          1           0        1.084819   -2.192196   -0.000003
     22          1           0        2.834993   -2.509812    0.000604
     23          6           0       -4.975958   -1.263864    0.000306
     24          6           0       -3.445419    2.222425    0.000214
     25          6           0       -4.756438    1.379154    0.000384
     26          1           0       -5.372862    1.598568    0.878720
     27          1           0       -5.373151    1.598662   -0.877725
     28          1           0       -3.380233    2.874794    0.877924
     29          1           0       -3.380506    2.874859   -0.877467
     30          1           0       -0.112361    3.065654    0.879025
     31          1           0       -0.112397    3.065749   -0.879240
     32          1           0       -2.295356   -3.427532   -0.000190
     33          1           0       -4.759576   -3.412187    0.000200
     34          6           0        4.761875   -0.814954    0.000432
     35          8           0        4.751206   -2.043587    0.001089
     36          8           0        5.927021   -0.142043    0.000071
     37          1           0        6.636917   -0.801760    0.000536
 ---------------------------------------------------------------------

 SCF Done:  E(RPBE1PBE) =  -991.428144784     A.U. after    1 cycles

 Excitation energies and oscillator strengths:

 Excited State   1:      Singlet-A      3.4760 eV  356.69 nm  f=0.4998  <S**2>=0.000
      79 -> 80         0.69252
 This state for optimization and/or second-order correction.
 Total Energy, E(TD-HF/TD-DFT) =  -991.300404683
 Copying the excited state density for this state as the 1-particle RhoCI density.

 Excited State   2:      Singlet-A      3.9871 eV  310.96 nm  f=0.0221  <S**2>=0.000
      77 -> 80         0.15892
      78 -> 80         0.40796
      78 -> 82         0.11766
      79 -> 81         0.52118

 Excited State   3:      Singlet-A      4.0433 eV  306.64 nm  f=0.0500  <S**2>=0.000
      78 -> 80         0.54176
      79 -> 81        -0.40652

 The electronic state is 1-A.
 Alpha  occ. eigenvalues --  -19.28609 -19.23204 -14.41780 -14.40888 -10.38249
 Alpha  occ. eigenvalues --  -10.30997 -10.29223 -10.28224 -10.26920 -10.26867
 Alpha  occ. eigenvalues --  -10.26101 -10.26014 -10.25906 -10.25794 -10.25566
 Alpha  occ. eigenvalues --  -10.25281 -10.25167 -10.25052 -10.24774 -10.24675
 Alpha  occ. eigenvalues --  -10.24660 -10.24525 -10.24317  -1.15122  -1.05495
 Alpha  occ. eigenvalues --   -0.99176  -0.96588  -0.90886  -0.90394  -0.86557
 Alpha  occ. eigenvalues --   -0.84092  -0.79999  -0.78528  -0.76073  -0.75455
 Alpha  occ. eigenvalues --   -0.74255  -0.69475  -0.67793  -0.64724  -0.64180
 Alpha  occ. eigenvalues --   -0.62618  -0.60935  -0.60294  -0.56482  -0.54877
 Alpha  occ. eigenvalues --   -0.53519  -0.52358  -0.51869  -0.50870  -0.49480
 Alpha  occ. eigenvalues --   -0.49181  -0.48134  -0.47018  -0.46975  -0.46229
 Alpha  occ. eigenvalues --   -0.45689  -0.44764  -0.44214  -0.42581  -0.42413
 Alpha  occ. eigenvalues --   -0.41792  -0.40969  -0.39279  -0.39165  -0.38576
 Alpha  occ. eigenvalues --   -0.38056  -0.37556  -0.36496  -0.35688  -0.35634
 Alpha  occ. eigenvalues --   -0.34834  -0.33728  -0.31279  -0.30827  -0.29307
 Alpha  occ. eigenvalues --   -0.28381  -0.25725  -0.23747  -0.22180
 Alpha virt. eigenvalues --   -0.06446  -0.04676  -0.02423   0.00109   0.00971
 Alpha virt. eigenvalues --    0.01756   0.01870   0.02461   0.02971   0.03509
 Alpha virt. eigenvalues --    0.03726   0.04109   0.04551   0.04935   0.04992

 Mulliken charges:
               1
     1  N   -0.632784
     2  C    0.490117
     3  C   -0.528760
     4  C   -0.929691
     5  H    0.191975
     6  C   -0.429932
     7  H    0.183962
     8  C    0.058247
     9  C   -0.942355
    10  C    0.275726
    11  C    0.201064
    12  C   -0.596941
    13  C   -0.083656
    14  N   -0.215481
    15  H    0.181779
    16  C    0.120425
    17  C   -0.119387
    18  C    0.135568
    19  C   -0.021311
    20  C    1.063249
    21  H    0.373068
    22  H    0.380071
    23  C   -0.605379
    24  C   -0.358713
    25  C   -0.493665
    26  H    0.202342
    27  H    0.202342
    28  H    0.207667
    29  H    0.207668
    30  H    0.221877
    31  H    0.221881
    32  H    0.176731
    33  H    0.180105
    34  C    1.307417
    35  O   -0.557067
    36  O   -0.485425
    37  H    0.417264
 Sum of Mulliken charges =  -0.00000

 Dipole moment (field-independent basis, Debye):
    X=             -3.8211    Y=              5.0921    Z=              0.0054  Tot=              6.3663
 Quadrupole moment (field-independent basis, Debye-Ang):
   XX=           -108.4928   YY=           -118.8141   ZZ=           -136.7028
   XY=             -0.5548   XZ=              0.0084   YZ=             -0.0076

 Normal termination of Gaussian 16 at Tue Feb 11 12:03:38 2025.
